[36mINFO[0m Using enhanced forward compatability with host GPU driver 
[36mINFO[0m Setting CUDA_MODULE_LOADING=LAZY. Please see https://docs.nvidia.com for more information. 

     Program PWSCF v.7.3.1 starts on 12Mar2025 at  7:23:21 

     This program is part of the open-source Quantum ESPRESSO suite
     for quantum simulation of materials; please cite
         "P. Giannozzi et al., J. Phys.:Condens. Matter 21 395502 (2009);
         "P. Giannozzi et al., J. Phys.:Condens. Matter 29 465901 (2017);
         "P. Giannozzi et al., J. Chem. Phys. 152 154105 (2020);
          URL http://www.quantum-espresso.org", 
     in publications or presentations arising from this work. More details at
     http://www.quantum-espresso.org/quote

     Parallel version (MPI & OpenMP), running on       8 processor cores
     Number of MPI processes:                 1
     Threads/MPI process:                     8

     MPI processes distributed on     1 nodes
     2461 MiB available memory on the printing compute node when the environment starts
 
     Reading input from graphene.scf.in

     Current dimensions of program PWSCF are:
     Max number of different atomic species (ntypx) = 10
     Max number of k-points (npk) =  40000
     Max angular momentum in pseudopotentials (lmaxx) =  4
 
     Subspace diagonalization in iterative solution of the eigenvalue problem:
     a serial algorithm will be used

 
     G-vector sticks info
     --------------------
     sticks:   dense  smooth     PW     G-vecs:    dense   smooth      PW
     Sum         211     169     61                10409     7409    1501
 
     Using Slab Decomposition
 


     bravais-lattice index     =            4
     lattice parameter (alat)  =       4.6020  a.u.
     unit-cell volume          =     337.6218 (a.u.)^3
     number of atoms/cell      =            2
     number of atomic types    =            1
     number of electrons       =         8.00
     number of Kohn-Sham states=            8
     kinetic-energy cutoff     =      30.0000  Ry
     charge density cutoff     =     150.0000  Ry
     scf convergence threshold =      1.0E-08
     mixing beta               =       0.7000
     number of iterations used =            8  plain     mixing
     Exchange-correlation=  SLA  PZ   NOGX NOGC
                           (   1   1   0   0   0   0   0)

     GPU acceleration is ACTIVE.  1 visible GPUs per MPI rank
     GPU-aware MPI enabled


     celldm(1)=   4.602000  celldm(2)=   0.000000  celldm(3)=   4.000000
     celldm(4)=   0.000000  celldm(5)=   0.000000  celldm(6)=   0.000000

     crystal axes: (cart. coord. in units of alat)
               a(1) = (   1.000000   0.000000   0.000000 )  
               a(2) = (  -0.500000   0.866025   0.000000 )  
               a(3) = (   0.000000   0.000000   4.000000 )  

     reciprocal axes: (cart. coord. in units 2 pi/alat)
               b(1) = (  1.000000  0.577350 -0.000000 )  
               b(2) = (  0.000000  1.154701  0.000000 )  
               b(3) = (  0.000000 -0.000000  0.250000 )  


     PseudoPot. # 1 for C  read from file:
     ./C.pz-van_ak.UPF
     MD5 check sum: d40b4001ce20bbb1180eafeb54b8064c
     Pseudo is Ultrasoft, Zval =  4.0
     Generated by new atomic code, or converted to UPF format
     Using radial grid of  721 points,  4 beta functions with: 
                l(1) =   0
                l(2) =   0
                l(3) =   1
                l(4) =   1
     Q(r) pseudized with  8 coefficients,  rinner =    0.800   0.800   0.800


     atomic species   valence    mass     pseudopotential
     C                 4.00    12.01070     C ( 1.00)

     24 Sym. Ops., with inversion, found (12 have fractional translation)



   Cartesian axes

     site n.     atom                  positions (alat units)
         1        C      tau(   1) = (   0.0000000   0.0000000   0.0000000  )
         2        C      tau(   2) = (  -0.0000000   0.5773503   0.0000000  )

     number of k points=    19  Methfessel-Paxton smearing, width (Ry)=  0.0100
                       cart. coord. in units 2pi/alat
        k(    1) = (   0.0000000   0.0000000   0.0000000), wk =   0.0138889
        k(    2) = (   0.0000000   0.0962250   0.0000000), wk =   0.0833333
        k(    3) = (   0.0000000   0.1924501   0.0000000), wk =   0.0833333
        k(    4) = (   0.0000000   0.2886751   0.0000000), wk =   0.0833333
        k(    5) = (   0.0000000   0.3849002   0.0000000), wk =   0.0833333
        k(    6) = (   0.0000000   0.4811252   0.0000000), wk =   0.0833333
        k(    7) = (   0.0000000  -0.5773503   0.0000000), wk =   0.0416667
        k(    8) = (   0.0833333   0.1443376   0.0000000), wk =   0.0833333
        k(    9) = (   0.0833333   0.2405626   0.0000000), wk =   0.1666667
        k(   10) = (   0.0833333   0.3367877   0.0000000), wk =   0.1666667
        k(   11) = (   0.0833333   0.4330127   0.0000000), wk =   0.1666667
        k(   12) = (   0.0833333   0.5292377   0.0000000), wk =   0.1666667
        k(   13) = (   0.1666667   0.2886751   0.0000000), wk =   0.0833333
        k(   14) = (   0.1666667   0.3849002   0.0000000), wk =   0.1666667
        k(   15) = (   0.1666667   0.4811252   0.0000000), wk =   0.1666667
        k(   16) = (   0.1666667   0.5773503   0.0000000), wk =   0.0833333
        k(   17) = (   0.2500000   0.4330127   0.0000000), wk =   0.0833333
        k(   18) = (   0.2500000   0.5292377   0.0000000), wk =   0.1666667
        k(   19) = (   0.3333333   0.5773503   0.0000000), wk =   0.0277778

     Dense  grid:    10409 G-vectors     FFT dimensions: (  18,  18,  72)

     Smooth grid:     7409 G-vectors     FFT dimensions: (  18,  18,  72)

     Estimated max dynamical RAM per process >      16.65 MB

     Initial potential from superposition of free atoms

     starting charge       7.9999, renormalised to       8.0000

     negative rho (up, down):  4.430E-05 0.000E+00
     Starting wfcs are    8 randomized atomic wfcs

     total cpu time spent up to now is        1.1 secs

     Self-consistent Calculation

     iteration #  1     ecut=    30.00 Ry     beta= 0.70
     Davidson diagonalization with overlap
     ethr =  1.00E-02,  avg # of iterations =  5.3

     negative rho (up, down):  1.316E-04 0.000E+00

     total cpu time spent up to now is        1.9 secs

     total energy              =     -22.81190103 Ry
     estimated scf accuracy    <       0.23019501 Ry

     iteration #  2     ecut=    30.00 Ry     beta= 0.70
     Davidson diagonalization with overlap
     ethr =  2.88E-03,  avg # of iterations =  2.7

     negative rho (up, down):  1.486E-04 0.000E+00

     total cpu time spent up to now is        2.3 secs

     total energy              =     -22.84910385 Ry
     estimated scf accuracy    <       0.00266456 Ry

     iteration #  3     ecut=    30.00 Ry     beta= 0.70
     Davidson diagonalization with overlap
     ethr =  3.33E-05,  avg # of iterations =  9.8

     negative rho (up, down):  1.623E-04 0.000E+00

     total cpu time spent up to now is        3.5 secs

     total energy              =     -22.84943355 Ry
     estimated scf accuracy    <       0.00014116 Ry

     iteration #  4     ecut=    30.00 Ry     beta= 0.70
     Davidson diagonalization with overlap
     ethr =  1.76E-06,  avg # of iterations =  3.0

     negative rho (up, down):  1.646E-04 0.000E+00

     total cpu time spent up to now is        3.9 secs

     total energy              =     -22.84944231 Ry
     estimated scf accuracy    <       0.00000096 Ry

     iteration #  5     ecut=    30.00 Ry     beta= 0.70
     Davidson diagonalization with overlap
     ethr =  1.20E-08,  avg # of iterations =  3.5

     negative rho (up, down):  1.646E-04 0.000E+00

     total cpu time spent up to now is        4.5 secs

     total energy              =     -22.84944326 Ry
     estimated scf accuracy    <       0.00000004 Ry

     iteration #  6     ecut=    30.00 Ry     beta= 0.70
     Davidson diagonalization with overlap
     ethr =  5.43E-10,  avg # of iterations =  1.9

     negative rho (up, down):  1.646E-04 0.000E+00

     total cpu time spent up to now is        4.8 secs

     End of self-consistent calculation

          k = 0.0000 0.0000 0.0000 (   915 PWs)   bands (ev):

   -20.1131  -8.3737  -3.5128  -3.5128   2.6282   4.4311   5.4524   8.0335

          k = 0.0000 0.0962 0.0000 (   905 PWs)   bands (ev):

   -19.9466  -8.1712  -4.1590  -3.8647   2.8560   4.6568   5.6772   8.1117

          k = 0.0000 0.1925 0.0000 (   919 PWs)   bands (ev):

   -19.4488  -7.5687  -5.7963  -4.6865   3.5398   5.3305   6.3512   8.1226

          k = 0.0000 0.2887 0.0000 (   929 PWs)   bands (ev):

   -18.6253  -7.9076  -6.5852  -5.5963   4.6775   6.3781   7.0860   7.4367

          k = 0.0000 0.3849 0.0000 (   933 PWs)   bands (ev):

   -17.4870 -10.1352  -6.3533  -5.2704   4.5612   6.2602   7.6145   8.0484

          k = 0.0000 0.4811 0.0000 (   929 PWs)   bands (ev):

   -16.0578 -12.2734  -6.8410  -3.7877   2.3327   7.3871   8.3179  10.0018

          k = 0.0000-0.5774 0.0000 (   934 PWs)   bands (ev):

   -14.6751 -13.9005  -7.0083  -2.8975   1.1772   7.3232  10.7011  10.7844

          k = 0.0833 0.1443 0.0000 (   924 PWs)   bands (ev):

   -19.6145  -7.7687  -5.1855  -4.5683   3.3121   5.1070   6.1280   8.4106

          k = 0.0833 0.2406 0.0000 (   933 PWs)   bands (ev):

   -18.9540  -6.9745  -6.8981  -5.5980   4.2238   5.9973   7.0289   7.8898

          k = 0.0833 0.3368 0.0000 (   943 PWs)   bands (ev):

   -17.9731  -8.9921  -6.5066  -5.8189   5.5870   5.6267   7.3642   8.2622

          k = 0.0833 0.4330 0.0000 (   943 PWs)   bands (ev):

   -16.6881 -11.1465  -7.1567  -4.3859   3.3334   7.3852   8.2188   9.0947

          k = 0.0833 0.5292 0.0000 (   941 PWs)   bands (ev):

   -15.1528 -13.1479  -7.4930  -3.0151   1.4811   8.0549   9.6405  11.1259

          k = 0.1667 0.2887 0.0000 (   936 PWs)   bands (ev):

   -18.1362  -8.2110  -7.0103  -6.0043   5.3620   6.1133   7.0965   8.1618

          k = 0.1667 0.3849 0.0000 (   950 PWs)   bands (ev):

   -17.0084  -9.9611  -8.0827  -4.7052   4.0958   6.9460   8.5778   9.7010

          k = 0.1667 0.4811 0.0000 (   947 PWs)   bands (ev):

   -15.5993 -11.9203  -8.6566  -3.2201   2.1053   8.9540   9.9451  10.2561

          k = 0.1667 0.5774 0.0000 (   952 PWs)   bands (ev):

   -14.2579 -13.4675  -8.8411  -2.2823   0.9837   9.8609  11.2774  11.3993

          k = 0.2500 0.4330 0.0000 (   940 PWs)   bands (ev):

   -15.7540 -10.9594  -9.6386  -3.3113   2.4370   8.7343   9.8846  11.4850

          k = 0.2500 0.5292 0.0000 (   942 PWs)   bands (ev):

   -14.2806 -12.4394 -10.3444  -1.8680   0.8630  10.3112  10.8836  12.0847

          k = 0.3333 0.5774 0.0000 (   936 PWs)   bands (ev):

   -13.0103 -13.0103 -11.3663  -0.4658  -0.4658   9.9511  12.6059  12.6064

     the Fermi energy is    -0.4658 ev

!    total energy              =     -22.84944327 Ry
     estimated scf accuracy    <          2.4E-09 Ry
     smearing contrib. (-TS)   =      -0.00007836 Ry
     internal energy E=F+TS    =     -22.84936491 Ry

     The total energy is F=E-TS. E is the sum of the following terms:
     one-electron contribution =     -89.64889464 Ry
     hartree contribution      =      46.53450210 Ry
     xc contribution           =      -6.97846124 Ry
     ewald contribution        =      27.24348888 Ry

     convergence has been achieved in   6 iterations

     Forces acting on atoms (cartesian axes, Ry/au):

     atom    1 type  1   force =     0.00000000    0.00000000    0.00000000
     atom    2 type  1   force =    -0.00000000   -0.00000000    0.00000000

     Total force =     0.000000     Total SCF correction =     0.000000


     Computing stress (Cartesian axis) and pressure

          total   stress  (Ry/bohr**3)                   (kbar)     P=       13.31
   0.00014325   0.00000000  -0.00000000           21.07        0.00       -0.00
   0.00000000   0.00014325   0.00000000            0.00       21.07        0.00
   0.00000000  -0.00000000  -0.00001502            0.00       -0.00       -2.21


     Writing all to output data dir ./work/graphene.save/ :
     XML data file, charge density, pseudopotentials, collected wavefunctions
 
     init_run     :      1.06s CPU      1.03s WALL (       1 calls)
     electrons    :      3.61s CPU      3.72s WALL (       1 calls)
     forces       :      0.16s CPU      0.20s WALL (       1 calls)
     stress       :      0.37s CPU      0.40s WALL (       1 calls)

     Called by init_run:
     wfcinit      :      0.17s CPU      0.19s WALL (       1 calls)
     potinit      :      0.73s CPU      0.39s WALL (       1 calls)
     hinit0       :      0.11s CPU      0.39s WALL (       1 calls)

     Called by electrons:
     c_bands      :      3.16s CPU      3.28s WALL (       6 calls)
     sum_band     :      0.30s CPU      0.33s WALL (       6 calls)
     v_of_rho     :      0.08s CPU      0.06s WALL (       7 calls)
     newd         :      0.11s CPU      0.10s WALL (       7 calls)
                                        0.10s GPU  (       7 calls)
     mix_rho      :      0.04s CPU      0.04s WALL (       6 calls)

     Called by c_bands:
     init_us_2    :      0.22s CPU      0.24s WALL (     285 calls)
     cegterg      :      2.94s CPU      3.05s WALL (     114 calls)

     Called by *egterg:
     cdiaghg      :      0.62s CPU      0.67s WALL (     611 calls)
                                        0.63s GPU  (     611 calls)
     h_psi        :      1.27s CPU      1.37s WALL (     630 calls)
                                        1.34s GPU  (     630 calls)
     s_psi        :      0.18s CPU      0.18s WALL (     630 calls)
     g_psi        :      0.00s CPU      0.03s WALL (     497 calls)
                                        0.00s GPU  (     497 calls)

     Called by h_psi:
     h_psi:calbec :      0.03s CPU      0.11s WALL (     630 calls)
                                        0.04s GPU  (     630 calls)
     vloc_psi     :      0.83s CPU      0.89s WALL (     630 calls)
                                        0.86s GPU  (     630 calls)
     add_vuspsi   :      0.18s CPU      0.22s WALL (     630 calls)
                                        0.19s GPU  (     630 calls)

     General routines
     calbec       :      0.03s CPU      0.05s WALL (     839 calls)
     fft          :      0.74s CPU      0.68s WALL (      45 calls)
                                        0.34s GPU  (      38 calls)
     ffts         :      0.00s CPU      0.00s WALL (      13 calls)
                                        0.00s GPU  (       6 calls)
     fftw         :      0.02s CPU      0.25s WALL (    1374 calls)
                                        0.19s GPU  (    1374 calls)
     interpolate  :      0.69s CPU      0.34s WALL (       7 calls)
 
     Parallel routines
 
     PWSCF        :      5.31s CPU      5.44s WALL

 
   This run was terminated on:   7:23:27  12Mar2025            

=------------------------------------------------------------------------------=
   JOB DONE.
=------------------------------------------------------------------------------=
Warning: ieee_invalid is signaling
Warning: ieee_divide_by_zero is signaling
Warning: ieee_inexact is signaling
FORTRAN STOP
